 Q-Chem 4.3, Q-Chem, Inc., Pleasanton, CA (2015)
 Q-Chem 4.3.0 for Intel X86 EM64T Linux

User input:
--------------------------------------------------------------
$molecule
0 1
I
C  1 2.165340
F  2 1.333325 1 111.207119
F  2 1.333325 1 111.207119 3 120.149655 0
F  2 1.333779 1 110.982757 3 -119.925172 0
N  1 2.0 2 179.936173 3 119.925172 0
C  6 1.330504 1 120.904576 2 -0.000000 0
H  7 1.085274 6 116.170594 1 -0.000000 0
C  6 1.330513 1 120.853593 2 -180.000000 0
H  9 1.085265 6 116.169648 1 -0.000000 0
C  9 1.386047 6 122.991772 1 -180.000000 0
H  11 1.082308 9 120.153884 6 -180.000000 0
C  11 1.386006 9 118.486919 6 -0.000000 0
H  13 1.083393 11 120.598104 9 -180.000000 0
C  13 1.386004 11 118.800624 9 -0.000000 0
H  15 1.082304 13 121.357742 11 -180.000000 0
$end

$rem
basis         		6-311G**
method			ADC(2)
ee_singlets		5
cc_symmetry		true
mem_static		5000
mem_total		220000
threads			12
$end

--------------------------------------------------------------

             Standard Nuclear Orientation (Angstroms)
    I     Atom           X                Y                Z
 ----------------------------------------------------------------
    1      I       0.4563267579    -0.0011867616    -0.0000000010
    2      C       2.6216665319    -0.0001975130    -0.0000000019
    3      F       3.1042673127    -0.6200860247     1.0773069530
    4      F       3.1042673127    -0.6200860247    -1.0773069530
    5      F       3.0987064313     1.2453543146     0.0000000000
    6      N      -1.5436728103     0.0001275089    -0.0000000001
    7      C      -2.2262823422     1.1421805379    -0.0000000026
    8      H      -1.6357959017     2.0527547625     0.0000000000
    9      C      -2.2267716451    -1.1416434072     0.0000000000
   10      H      -1.6366616057    -2.0524508850     0.0000000000
   11      C      -3.6118872993    -1.1924460722     0.0000000000
   12      H      -4.1208898190    -2.1475937266     0.0000000000
   13      C      -4.3171603628     0.0007020904     0.0000000011
   14      H      -5.4005533441     0.0009036027     0.0000000016
   15      C      -3.6113785568     1.1935470637    -0.0000000021
   16      H      -4.1199952821     2.1488956782     0.0000000000
 ----------------------------------------------------------------

   15   -7499.7452656920      3.36E-09 Convergence criterion met
 Total energy in the final basis set = -7499.7452656920
  Excited state 1 (singlet, A")                                    [converged]
  Term symbol:  1 (1) A"                                    R^2 =  7.77227e-11
  Excitation energy:                                               3.612484 eV
  Excited state 2 (singlet, A")                                    [converged]
  Term symbol:  2 (1) A"                                    R^2 =  7.77061e-11
  Excitation energy:                                               4.358282 eV
  Excited state 3 (singlet, A')                                    [converged]
  Term symbol:  2 (1) A'                                    R^2 =  1.67207e-11
  Excitation energy:                                               4.702411 eV
  Excited state 4 (singlet, A")                                    [converged]
  Term symbol:  3 (1) A"                                    R^2 =  6.95105e-12
  Excitation energy:                                               4.915610 eV
  Excited state 5 (singlet, A')                                    [converged]
  Term symbol:  3 (1) A'                                    R^2 =  6.94714e-12
  Excitation energy:                                               5.000536 eV
  Excited state 6 (singlet, A")                                    [converged]
  Term symbol:  4 (1) A"                                    R^2 =  7.26205e-12
  Excitation energy:                                               5.731166 eV
  Excited state 7 (singlet, A')                                    [converged]
  Term symbol:  4 (1) A'                                    R^2 =  2.71874e-11
  Excitation energy:                                               5.940073 eV
  Excited state 8 (singlet, A')                                    [converged]
  Term symbol:  5 (1) A'                                    R^2 =  5.04889e-07
  Excitation energy:                                               6.855611 eV
  Excited state 9 (singlet, A')                                    [converged]
  Term symbol:  6 (1) A'                                    R^2 =  1.09639e-07
  Excitation energy:                                               6.930240 eV
  Excited state 10 (singlet, A")                                [not converged]
  Term symbol:  5 (1) A"                                    R^2 =  3.25076e-06
  Excitation energy:                                               7.546423 eV

             Orbital Energies (a.u.) and Symmetries
 --------------------------------------------------------------

 Alpha MOs, Restricted
 -- Occupied --
******* -180.84 -169.65 -169.65 -169.65  -37.90  -33.09  -33.08
  1 A'    2 A'    3 A'    1 A"    4 A'    5 A'    6 A'    2 A"
-33.082 -26.281 -26.281 -26.281 -24.274 -24.270 -24.270 -24.264
  7 A'    8 A'    3 A"    9 A'   10 A'    4 A"   11 A'   12 A'
-24.264 -15.641 -11.425 -11.332 -11.332 -11.309 -11.289 -11.288
  5 A"   13 A'   14 A'   15 A'   16 A'   17 A'   18 A'   19 A'
 -7.219  -5.457  -5.439  -5.439  -2.385  -2.373  -2.373  -2.354
 20 A'   21 A'   22 A'    6 A"   23 A'   24 A'    7 A"   25 A'
 -2.354  -1.680  -1.584  -1.584  -1.351  -1.154  -1.094  -0.944
  8 A"   26 A'    9 A"   27 A'   28 A'   29 A'   30 A'   31 A'
 -0.923  -0.920  -0.862  -0.790  -0.771  -0.771  -0.733  -0.726
 32 A'   33 A'   34 A'   35 A'   10 A"   36 A'   37 A'   38 A'
 -0.699  -0.659  -0.659  -0.652  -0.629  -0.622  -0.613  -0.612
 39 A'   11 A"   40 A'   41 A'   42 A'   12 A"   43 A'   13 A"
 -0.595  -0.573  -0.553  -0.462  -0.398  -0.367  -0.349  -0.343
 14 A"   44 A'   45 A'   15 A"   16 A"   46 A'   17 A"   47 A'

 Beta MOs, Restricted
 -- Occupied --
******* -180.84 -169.65 -169.65 -169.65  -37.90  -33.09  -33.08
  1 A'    2 A'    3 A'    1 A"    4 A'    5 A'    6 A'    2 A"
-33.082 -26.281 -26.281 -26.281 -24.274 -24.270 -24.270 -24.264
  7 A'    8 A'    3 A"    9 A'   10 A'    4 A"   11 A'   12 A'
-24.264 -15.641 -11.425 -11.332 -11.332 -11.309 -11.289 -11.288
  5 A"   13 A'   14 A'   15 A'   16 A'   17 A'   18 A'   19 A'
 -7.219  -5.457  -5.439  -5.439  -2.385  -2.373  -2.373  -2.354
 20 A'   21 A'   22 A'    6 A"   23 A'   24 A'    7 A"   25 A'
 -2.354  -1.680  -1.584  -1.584  -1.351  -1.154  -1.094  -0.944
  8 A"   26 A'    9 A"   27 A'   28 A'   29 A'   30 A'   31 A'
 -0.923  -0.920  -0.862  -0.790  -0.771  -0.771  -0.733  -0.726
 32 A'   33 A'   34 A'   35 A'   10 A"   36 A'   37 A'   38 A'
 -0.699  -0.659  -0.659  -0.652  -0.629  -0.622  -0.613  -0.612
 39 A'   11 A"   40 A'   41 A'   42 A'   12 A"   43 A'   13 A"
 -0.595  -0.573  -0.553  -0.462  -0.398  -0.367  -0.349  -0.343
 14 A"   44 A'   45 A'   15 A"   16 A"   46 A'   17 A"   47 A'

          Ground-State Mulliken Net Atomic Charges

     Atom                 Charge (a.u.)
  ----------------------------------------
      1 I                     0.271214
      2 C                     0.469793
      3 F                    -0.301753
      4 F                    -0.301753
      5 F                    -0.303385
      6 N                    -0.671743
      7 C                     0.285283
      8 H                     0.156820
      9 C                     0.285439
     10 H                     0.156305
     11 C                    -0.257270
     12 H                     0.130887
     13 C                     0.071776
     14 H                     0.134771
     15 C                    -0.257306
     16 H                     0.130921
  ----------------------------------------
  Sum of atomic charges =    -0.000000

                    Cartesian Multipole Moments
 -----------------------------------------------------------------
    Charge (ESU x 10^10)
                 0.0000
    Dipole Moment (Debye)
         X     -10.7753      Y      -0.0056      Z       0.0000
       Tot      10.7753
    Quadrupole Moments (Debye-Ang)
        XX     -71.1739     XY      -0.0230     YY     -77.6973
        XZ       0.0000     YZ      -0.0000     ZZ     -89.4146

 Total job time:  11676.61s(wall), 115598.70s(cpu)
        *  Thank you very much for using Q-Chem.  Have a nice day.  *
